# Forces      
# CofR        : (0.000000e+00 0.000000e+00 0.000000e+00)
# Time        forces(pressure viscous)	moments(pressure viscous)
0             	((0.000000e+00 0.000000e+00 0.000000e+00) (5.602023e+00 1.529120e-02 -1.163288e-21)) ((0.000000e+00 0.000000e+00 0.000000e+00) (-7.645600e-03 2.801012e+00 -2.543144e-01))
50            	((1.342790e+02 1.318689e+03 1.501972e-18) (1.106135e+01 7.194411e-01 -4.102812e-20)) ((-6.593444e+02 6.713949e+01 7.192281e+02) (-3.597206e-01 5.530677e+00 -1.332814e+00))
100           	((1.263764e+02 1.330471e+03 1.612195e-18) (1.160554e+01 7.296600e-01 -3.952406e-20)) ((-6.652356e+02 6.318819e+01 7.165213e+02) (-3.648300e-01 5.802771e+00 -1.407343e+00))
150           	((1.421687e+02 1.335484e+03 1.639735e-18) (1.182193e+01 7.231800e-01 -4.266603e-20)) ((-6.677420e+02 7.108436e+01 7.309412e+02) (-3.615900e-01 5.910967e+00 -1.457513e+00))
200           	((1.467021e+02 1.323071e+03 1.660670e-18) (1.215298e+01 7.398573e-01 -4.399883e-20)) ((-6.615357e+02 7.335107e+01 7.290209e+02) (-3.699287e-01 6.076492e+00 -1.494206e+00))
250           	((1.484523e+02 1.321091e+03 1.665558e-18) (1.235545e+01 7.330437e-01 -4.442911e-20)) ((-6.605457e+02 7.422617e+01 7.298790e+02) (-3.665218e-01 6.177725e+00 -1.525290e+00))
300           	((1.488678e+02 1.321550e+03 1.667312e-18) (1.244328e+01 7.318191e-01 -4.452981e-20)) ((-6.607751e+02 7.443391e+01 7.305442e+02) (-3.659095e-01 6.221640e+00 -1.537756e+00))
350           	((1.489643e+02 1.321997e+03 1.667992e-18) (1.247753e+01 7.317263e-01 -4.455101e-20)) ((-6.609985e+02 7.448213e+01 7.308717e+02) (-3.658632e-01 6.238766e+00 -1.542385e+00))
400           	((1.489884e+02 1.322205e+03 1.668290e-18) (1.249012e+01 7.318557e-01 -4.455567e-20)) ((-6.611027e+02 7.449419e+01 7.310035e+02) (-3.659279e-01 6.245058e+00 -1.543994e+00))
