# Force coefficients
# liftDir     : (0.000000e+00 1.000000e+00 0.000000e+00)
# dragDir     : (1.000000e+00 0.000000e+00 0.000000e+00)
# pitchAxis   : (0.000000e+00 0.000000e+00 1.000000e+00)
# magUInf     : 5.148150e+01
# lRef        : 1.000000e+00
# Aref        : 1.000000e+00
# CofR        : (0.000000e+00 0.000000e+00 0.000000e+00)
# Time        	Cm            	Cd            	Cl            	Cl(f)         	Cl(r)         
0             	-1.566616e-04	3.450932e-03	9.419614e-06	-1.519518e-04	1.613714e-04
50            	4.422345e-01	8.953187e-02	8.127757e-01	8.486224e-01	-3.584667e-02
100           	4.405212e-01	8.499898e-02	8.200402e-01	8.505413e-01	-3.050105e-02
150           	4.493731e-01	9.486060e-02	8.231241e-01	8.609352e-01	-3.781108e-02
200           	4.481676e-01	9.785719e-02	8.154881e-01	8.559117e-01	-4.042359e-02
250           	4.486770e-01	9.906007e-02	8.142641e-01	8.558091e-01	-4.154497e-02
300           	4.490791e-01	9.937012e-02	8.145460e-01	8.563521e-01	-4.180612e-02
350           	4.492781e-01	9.945062e-02	8.148211e-01	8.566886e-01	-4.186749e-02
400           	4.493582e-01	9.947322e-02	8.149497e-01	8.568331e-01	-4.188338e-02
